# vtk DataFile Version 5.1
vtk output
ASCII
DATASET POLYDATA
POINTS 4 float
1332.1 443.8 1911 1331.61 443.863 1910.78 1332.14 443.581 1910.99 
1332.55 444.087 1911.09 
LINES 4 6
OFFSETS vtktypeint64
0 2 4 6 
CONNECTIVITY vtktypeint64
0 1 1 2 1 3 
CELL_DATA 3
FIELD FieldData 1
type 1 3 vtktypeint64
0 0 0 
POINT_DATA 4
FIELD FieldData 1
diameter 1 4 float
4.123 4.123 3.36162 3.96078 
