# vtk DataFile Version 4.2
vtk output
ASCII
DATASET POLYDATA
POINTS 4 float
1332.1 443.8 1911 1331.61 443.863 1910.78 1332.14 443.581 1910.99 
1332.55 444.087 1911.09 
METADATA
INFORMATION 1
NAME L2_NORM_RANGE LOCATION vtkDataArray
DATA 2 2370.93 2371.74 

LINES 3 9
2 0 1 
2 0 2 
2 0 3 

FIELD FieldData 2
field_property1 1 3 float
2.0615 1.68081 1.98039 
field_property2 1 3 float
0.0615 0.68081 0.98039

POINT_DATA 4
FIELD FieldData 2
point_property1 1 4 double
1.0 2.0 3.0 4.0
point_property2 1 4 double
4.0 3.0 2.0 1.0

CELL_DATA 3
FIELD FieldData 2
edge_property1 1 3 float
0.1 0.2 0.3
edge_property2 1 3 float
0.4 0.5 0.6
