# vtk DataFile Version 4.2
vtk output
ASCII
DATASET POLYDATA
POINTS 162 float
1303.59 467.623 1868.23 1303.47 467.529 1868.24 1304.57 468.228 1868.21 
1305.55 468.835 1868.18 1306.53 469.47 1868.14 1307.6 469.7 1868.3 
1304.1 426.3 1868.3 1303.47 425.971 1868.35 1303.93 466.564 1869.85 
1303.47 466.624 1869.1 1304.4 466.52 1870.75 1304.83 466.469 1871.68 
1305.21 466.397 1872.61 1305.56 466.286 1873.56 1305.91 466.113 1874.5 
1306.32 465.874 1875.41 1306.8 465.577 1876.25 1307.35 465.24 1877.03 
1307.97 464.877 1877.76 1308.61 464.496 1878.45 1309.27 464.1 1879.12 
1309.93 463.688 1879.77 1310.58 463.255 1880.43 1311.22 462.801 1881.08 
1311.84 462.326 1881.73 1312.43 461.828 1882.38 1313 461.301 1883.05 
1313.52 460.743 1883.72 1314.01 460.161 1884.39 1314.51 459.577 1885.06 
1315.05 459.017 1885.71 1315.65 458.5 1886.35 1316.32 458.037 1886.96 
1317.04 457.628 1887.56 1317.8 457.266 1888.13 1318.58 456.935 1888.69 
1319.37 456.617 1889.24 1320.16 456.296 1889.8 1320.94 455.956 1890.36 
1321.7 455.586 1890.93 1322.42 455.18 1891.52 1323.1 454.736 1892.13 
1323.72 454.25 1892.77 1324.26 453.719 1893.46 1324.68 453.142 1894.18 
1324.97 452.525 1894.93 1325.14 451.882 1895.7 1325.2 451.225 1896.48 
1325.19 450.56 1897.25 1325.11 449.894 1898.01 1324.97 449.231 1898.77 
1324.8 448.57 1899.53 1324.6 447.909 1900.27 1324.39 447.243 1901.02 
1324.19 446.572 1901.75 1324.01 445.892 1902.49 1323.85 445.205 1903.22 
1323.71 444.514 1903.95 1323.59 443.819 1904.69 1323.7 443.1 1905.4 
1309.78 423.148 1894.31 1309.77 423.102 1894.3 1309.99 424.189 1894.38 
1310.18 425.227 1894.52 1310.36 426.215 1894.88 1310.4 427 1895.6 
1309.74 427.617 1896.17 1309.32 428.212 1896.92 1309.02 428.785 1897.76 
1308.79 429.323 1898.63 1308.7 429.805 1899.57 1308.83 430.24 1900.52 
1309.23 430.661 1901.4 1309.83 431.087 1902.16 1310.57 431.505 1902.79 
1311.37 431.913 1903.33 1312.19 432.323 1903.86 1313.2 432.6 1904 
1319.03 435.867 1906.57 1319.59 435.557 1907.33 1320.46 435.075 1907.54 
1321.33 434.639 1907.77 1322.26 434.285 1907.96 1323.24 434.121 1908.11 
1324.22 434.302 1908.21 1325.05 434.864 1908.24 1325.65 435.664 1908.21 
1326.05 436.587 1908.13 1326.25 437.564 1908 1326.3 438.554 1907.83 
1326.24 439.537 1907.62 1326.13 440.509 1907.38 1326.01 441.48 1907.15 
1325.8 442.4 1906.8 1311.06 427.702 1895.17 1311.91 428.295 1895.07 
1312.77 428.881 1894.97 1313.62 429.503 1894.86 1314.6 429.8 1894.9 
1314.1 433.178 1904.29 1314.9 433.89 1904.55 1315.72 434.586 1904.81 
1316.54 435.289 1905.07 1317.36 435.984 1905.34 1318.1 436.8 1905.4 
1313.92 431.905 1904.5 1314.49 431.014 1904.86 1315.09 430.141 1905.24 
1315.3 429.1 1905.4 1318.46 437.819 1905.41 1319.12 438.697 1905.37 
1319.76 439.585 1905.33 1320.42 440.455 1905.29 1321.12 441.293 1905.26 
1321.88 442.078 1905.21 1322.72 442.8 1905.14 1324.71 442.571 1906.07 
1328.6 443.1 1908.9 1329.03 443.693 1908.12 1329.33 444.379 1907.36 
1329.63 445.063 1906.59 1329.93 445.755 1905.84 1330.22 446.426 1905.04 
1330.7 447.3 1904.7 1318.8 431.9 1906.8 1318.79 432.902 1906.81 
1318.83 433.904 1906.77 1318.86 434.909 1906.74 1326.75 442.683 1907.47 
1327.7 442.981 1908.12 1329.3 442.4 1909.6 1329.3 437.5 1908.9 
1329.3 438.506 1908.85 1329.3 439.512 1908.95 1329.3 440.517 1909.04 
1329.3 441.53 1909.11 1330.12 443.265 1909.94 1331.04 443.937 1910.52 
1332.1 443.8 1911 1332.8 438.9 1910.3 1332.29 439.78 1910.35 
1332.22 440.787 1910.54 1332.21 441.793 1910.73 1332.26 442.799 1910.94 
1332.94 444.337 1911.16 1333.66 444.951 1911.54 1334.36 445.569 1911.92 
1335.05 446.213 1912.31 1335.69 446.894 1912.7 1336.29 447.602 1913.11 
1336.85 448.329 1913.53 1337.4 449.066 1913.95 1337.94 449.811 1914.38 
1338.48 450.561 1914.8 1339.04 451.314 1915.19 1339.62 452.068 1915.54 
1340.23 452.814 1915.85 1340.88 453.544 1916.12 1341.56 454.253 1916.36 
1342.28 454.928 1916.57 1343.02 455.615 1916.77 1344 455.7 1916.6 

METADATA
INFORMATION 2
NAME L2_NORM_RANGE LOCATION vtkDataArray
DATA 2 2317.59 2384.82 
NAME L2_NORM_FINITE_RANGE LOCATION vtkDataArray
DATA 2 2317.59 2384.82 

LINES 160 480
2 0 1 
2 0 2 
2 2 3 
2 3 4 
2 4 5 
2 6 7 
2 8 9 
2 8 10 
2 10 11 
2 11 12 
2 12 13 
2 13 14 
2 14 15 
2 15 16 
2 16 17 
2 17 18 
2 18 19 
2 19 20 
2 20 21 
2 21 22 
2 22 23 
2 23 24 
2 24 25 
2 25 26 
2 26 27 
2 27 28 
2 28 29 
2 29 30 
2 30 31 
2 31 32 
2 32 33 
2 33 34 
2 34 35 
2 35 36 
2 36 37 
2 37 38 
2 38 39 
2 39 40 
2 40 41 
2 41 42 
2 42 43 
2 43 44 
2 44 45 
2 45 46 
2 46 47 
2 47 48 
2 48 49 
2 49 50 
2 50 51 
2 51 52 
2 52 53 
2 53 54 
2 54 55 
2 55 56 
2 56 57 
2 57 58 
2 58 59 
2 60 61 
2 60 62 
2 62 63 
2 63 64 
2 64 65 
2 65 66 
2 66 67 
2 67 68 
2 68 69 
2 69 70 
2 70 71 
2 71 72 
2 72 73 
2 73 74 
2 74 75 
2 75 76 
2 76 77 
2 78 79 
2 79 80 
2 80 81 
2 81 82 
2 82 83 
2 83 84 
2 84 85 
2 85 86 
2 86 87 
2 87 88 
2 88 89 
2 89 90 
2 90 91 
2 91 92 
2 92 93 
2 65 94 
2 94 95 
2 95 96 
2 96 97 
2 97 98 
2 77 99 
2 99 100 
2 100 101 
2 101 102 
2 102 103 
2 103 104 
2 77 105 
2 105 106 
2 106 107 
2 107 108 
2 104 109 
2 109 110 
2 110 111 
2 111 112 
2 112 113 
2 113 114 
2 114 115 
2 115 59 
2 59 116 
2 116 93 
2 117 118 
2 118 119 
2 119 120 
2 120 121 
2 121 122 
2 122 123 
2 104 78 
2 124 125 
2 125 126 
2 126 127 
2 127 78 
2 93 128 
2 128 129 
2 129 117 
2 117 130 
2 131 132 
2 132 133 
2 133 134 
2 134 135 
2 135 130 
2 130 136 
2 136 137 
2 137 138 
2 139 140 
2 140 141 
2 141 142 
2 142 143 
2 143 138 
2 138 144 
2 144 145 
2 145 146 
2 146 147 
2 147 148 
2 148 149 
2 149 150 
2 150 151 
2 151 152 
2 152 153 
2 153 154 
2 154 155 
2 155 156 
2 156 157 
2 157 158 
2 158 159 
2 159 160 
2 160 161 

CELL_DATA 160
SCALARS RegionId vtkIdType
LOOKUP_TABLE default
5 5 5 5 5 4 5 5 5 
5 5 5 5 5 5 5 5 5 
5 5 5 5 5 5 5 5 5 
5 5 5 5 5 5 5 5 5 
5 5 5 5 5 5 5 5 5 
5 5 5 5 5 5 5 5 5 
5 5 5 5 5 5 5 5 5 
5 5 5 5 5 5 5 5 5 
5 5 5 5 5 5 5 5 5 
5 5 5 5 5 5 5 5 5 
5 5 5 5 5 5 5 5 5 
5 5 5 5 5 5 5 5 5 
5 5 5 5 5 5 5 5 5 
5 5 5 5 5 5 5 5 5 
5 5 5 5 5 5 5 5 5 
5 5 5 5 5 5 5 5 5 
5 5 5 5 5 5 5 5 5 
5 5 5 5 5 5 5 
METADATA
INFORMATION 0

FIELD FieldData 1
radius 1 160 float
1.32287 1.32287 1.32287 1.32287 1.32287 1.30368 2.10429 2.10429 2.10429 
2.10429 2.10429 2.10429 2.10429 2.10429 2.10429 2.10429 2.10429 2.10429 
2.10429 2.10429 2.10429 2.10429 2.10429 2.10429 2.10429 2.10429 2.10429 
2.10429 2.10429 2.10429 2.10429 2.10429 2.10429 2.10429 2.10429 2.10429 
2.10429 2.10429 2.10429 2.10429 2.10429 2.10429 2.10429 2.10429 2.10429 
2.10429 2.10429 2.10429 2.10429 2.10429 2.10429 2.10429 2.10429 2.10429 
2.10429 2.10429 2.10429 2.12851 2.12851 2.12851 2.12851 2.12851 2.17096 
2.17096 2.17096 2.17096 2.17096 2.17096 2.17096 2.17096 2.17096 2.17096 
2.17096 2.17096 1.17139 1.17139 1.17139 1.17139 1.17139 1.17139 1.17139 
1.17139 1.17139 1.17139 1.17139 1.17139 1.17139 1.17139 1.17139 1.44786 
1.44786 1.44786 1.44786 1.44786 2.16717 2.16717 2.16717 2.16717 2.16717 
2.16717 1.69727 1.69727 1.69727 1.69727 2.7426 2.7426 2.7426 2.7426 
2.7426 2.7426 2.7426 2.7426 2.35081 2.35081 1.53182 1.53182 1.53182 
1.53182 1.53182 1.53182 1.74304 1.16026 1.16026 1.16026 1.16026 2.2079 
2.2079 2.2079 1.83909 1.3381 1.3381 1.3381 1.3381 1.3381 2.0615 
2.0615 2.0615 1.68081 1.68081 1.68081 1.68081 1.68081 1.98039 1.98039 
1.98039 1.98039 1.98039 1.98039 1.98039 1.98039 1.98039 1.98039 1.98039 
1.98039 1.98039 1.98039 1.98039 1.98039 1.98039 1.98039 
METADATA
INFORMATION 0

