# vtk DataFile Version 3.0
vtk output
ASCII
DATASET POLYDATA
POINTS 810 float
324.7 176.988 534.152 324.602 176.753 533.602 325.224 177.303 534.787 
325.189 177.775 535.628 325.655 178.221 536.375 325.385 178.737 537.224 
325.607 179.213 538.051 326.061 179.639 538.827 326.188 180.02 539.58 
325.993 180.413 540.451 325.664 180.756 541.273 326.633 180.925 541.711 
326.504 181.226 542.595 327.268 181.418 543.226 327.792 181.634 544.085 
328.46 181.74 544.611 328.151 181.839 545.177 329.034 181.891 545.601 
328.364 181.967 546.341 328.477 182.025 547.225 328.57 182.053 547.855 
329.344 182.076 548.609 329.248 182.103 549.613 328.366 182.118 550.126 
327.886 182.147 550.945 327.473 182.183 551.778 327.576 182.22 552.56 
327.178 182.259 553.471 326.844 182.263 554.412 326.515 182.228 555.347 
325.797 182.161 556.051 325.11 182.064 556.766 324.424 181.945 557.481 
323.741 181.811 558.212 323.423 181.648 559.136 323.196 181.505 560.08 
323.626 181.402 560.979 323.743 181.323 561.991 323.431 181.278 562.759 
323.326 181.23 563.688 323.781 181.19 564.401 323.729 181.123 565.355 
323.387 181.06 566.078 323.432 180.966 566.954 323.337 180.861 567.87 
323.084 180.775 568.778 323.065 180.694 569.792 323.506 180.666 570.683 
323.689 180.667 571.612 323.806 180.716 572.636 323.213 180.779 573.403 
323.461 180.894 574.345 323.374 181.05 575.332 323.327 181.247 576.305 
323.617 181.422 577.079 323.611 181.627 577.952 323.823 181.864 578.883 
323.173 182.06 579.629 323.639 182.295 580.49 323.628 182.533 581.365 
323.767 182.798 582.311 323.25 183.016 583.152 323.315 183.263 584.112 
323.614 183.469 585.001 323.816 183.69 585.98 323.218 183.85 586.758 
323.449 184.028 587.641 323.491 184.178 588.427 323.706 184.322 589.305 
323.749 184.489 590.306 323.237 184.604 591.139 323.42 184.739 592.096 
323.423 184.875 593.082 323.409 185.008 594.013 323.967 185.139 594.863 
324.541 185.257 595.659 324.898 185.398 596.572 324.839 185.538 597.544 
324.666 185.656 598.486 325.143 185.74 599.359 325.562 185.796 600.266 
325.43 185.814 601.174 325.532 185.791 602.138 324.897 185.76 602.941 
324.46 185.741 603.816 324.478 185.74 604.819 324.875 185.798 605.698 
325.279 185.882 606.511 325.716 186.004 607.32 325.994 186.182 608.293 
325.116 186.3 608.877 325.835 186.412 609.393 325.637 186.593 610.243 
326.018 186.787 611.112 326.202 186.991 612.072 326.753 187.164 612.965 
326.553 187.301 613.696 326.492 187.468 614.542 326.133 187.631 615.357 
326.288 187.833 616.218 326.159 188.084 617.129 326.727 188.334 617.957 
327.276 188.575 618.735 327.71 188.844 619.604 327.583 189.103 620.553 
327.551 189.314 621.529 327.622 189.456 622.432 327.226 189.558 623.338 
326.716 189.615 624.228 327.072 189.652 625.032 326.568 189.677 625.838 
326.202 189.695 626.56 325.763 189.714 627.382 324.824 189.731 627.956 
325.353 189.751 628.475 324.753 189.789 629.177 325.43 189.834 629.788 
325.183 189.887 630.354 324.887 189.961 630.992 325.402 190.079 631.883 
325.901 190.209 632.75 325.571 190.342 633.579 325.038 190.478 634.421 
324.268 190.569 634.989 324.576 190.716 635.953 324.959 190.831 636.81 
324.562 190.932 637.682 324.034 191.01 638.539 324.154 191.079 639.47 
324.07 191.146 640.468 324.056 191.219 641.461 324.287 191.291 642.265 
324.364 191.396 643.205 325.147 191.469 643.845 325.175 191.6 644.784 
325.732 191.725 645.626 325.147 191.854 646.425 325.325 192.013 647.307 
325.248 192.212 648.284 325.233 192.427 649.252 325.328 192.663 650.214 
326.285 192.809 650.825 325.799 192.979 651.504 326.204 193.187 652.329 
325.403 193.349 652.965 326.127 193.525 653.633 325.942 193.767 654.56 
325.877 193.983 655.334 325.464 194.22 656.192 325.356 194.479 657.143 
325.833 194.696 657.954 326.134 194.9 658.752 326.642 195.038 659.34 
326.476 195.27 660.333 325.711 195.367 660.765 325.022 195.527 661.493 
325.532 195.696 662.317 325.91 195.885 663.196 325.119 196.038 663.903 
324.773 196.19 664.564 324.903 196.39 665.386 325.644 196.576 666.099 
325.242 196.817 666.953 325.134 197.099 667.941 325.59 197.344 668.764 
325.879 197.62 669.683 326.575 197.814 670.341 327.399 198.005 670.991 
327.388 198.263 671.866 327.27 198.525 672.836 327.635 198.735 673.634 
328.575 198.841 674.066 328.625 199.067 675.038 328.635 199.225 675.798 
327.698 199.318 676.241 328.113 199.499 677.157 328.423 199.663 678.008 
329.047 199.819 678.785 329.037 200.013 679.764 328.97 200.195 680.624 
329.351 200.353 681.37 329.393 200.552 682.353 328.853 200.693 683.08 
329.054 200.801 683.644 329.394 200.958 684.545 329.774 201.105 685.446 
329.983 201.243 686.417 330.47 201.35 687.304 330.351 201.442 688.235 
330.392 201.512 689.231 330.433 201.56 690.227 330.402 201.591 691.109 
330.744 201.624 692.019 331.237 201.662 692.863 331.011 201.724 693.822 
331.192 201.811 694.758 331.667 201.921 695.636 332.451 202.022 696.359 
332.281 202.17 697.239 332.001 202.344 698.18 331.671 202.528 699.104 
331.244 202.705 700.002 331.307 202.901 700.964 331.737 203.074 701.856 
331.792 203.23 702.716 331.839 203.377 703.696 331.819 203.487 704.56 
332.2 203.566 705.465 332.584 203.614 706.382 332.811 203.636 707.348 
333.369 203.642 708.162 333.111 203.648 709.123 333.328 203.674 710.058 
332.798 203.735 710.89 332.478 203.869 711.82 332.135 204.079 712.675 
332.281 204.424 713.634 333.108 204.641 714.11 333.784 204.992 714.757 
334.604 205.29 715.267 334.989 205.769 716.024 334.716 206.288 716.837 
334.285 206.729 717.565 334.265 207.158 718.397 333.721 207.465 719.103 
333.788 207.757 719.979 334.224 207.944 720.721 334.419 208.123 721.649 
334.742 208.255 722.536 334.297 208.363 723.414 333.895 208.444 724.339 
333.987 208.493 725.213 333.814 208.503 726.09 334.297 208.47 726.962 
334.616 208.396 727.893 334.851 208.282 728.856 335.383 208.161 729.733 
335.265 208.063 730.357 334.965 207.92 731.252 334.409 207.791 732.055 
334.65 207.648 732.95 334.674 207.525 733.778 334.849 207.418 734.61 
335.058 207.321 735.546 334.426 207.277 736.211 334.66 207.256 736.749 
334.942 207.262 737.662 335.481 207.303 738.471 335.24 207.401 739.422 
335.31 207.555 740.409 335.318 207.738 741.391 335.237 207.934 742.286 
334.76 208.118 743.166 334.796 208.315 744.131 335.197 208.476 745.006 
334.988 208.638 745.988 334.445 208.765 746.818 334.674 208.899 747.79 
334.472 209.047 748.77 334.857 209.165 749.634 335.052 209.304 750.594 
335.392 209.409 751.38 335.344 209.507 752.227 335.683 209.617 753.159 
336.155 209.707 754.016 335.946 209.806 754.999 336.044 209.924 755.99 
335.996 210.037 756.857 336.309 210.178 757.74 336.811 210.306 758.499 
337.16 210.506 759.369 337.396 210.745 760.315 337.684 211.023 761.231 
338.097 211.315 762.1 338.11 211.632 762.975 338.129 211.998 763.907 
337.992 212.384 764.819 338.3 212.757 765.654 338.526 213.179 766.535 
338.946 213.583 767.307 338.75 214.061 768.173 338.816 214.564 769.038 
338.792 215.096 769.886 338.811 215.639 770.724 338.763 216.179 771.514 
339.134 216.716 772.292 339.454 217.261 773.078 339.541 217.795 773.856 
339.493 218.339 774.691 339.495 218.85 775.552 339.485 219.305 776.443 
339.613 219.687 777.363 339.244 219.952 778.155 339.12 220.221 779.091 
338.685 220.382 779.69 338.663 220.639 780.589 339.082 220.904 781.454 
339.411 221.198 782.364 339.464 221.462 783.2 339.681 221.683 783.931 
339.849 221.934 784.857 340.389 222.115 785.606 340.095 222.286 786.424 
340.506 222.445 787.245 340.881 222.57 787.944 341.343 222.688 788.645 
341.584 222.846 789.561 341.848 223.021 790.508 342.318 223.193 791.4 
342.158 223.368 792.216 342.595 223.542 793.009 342.816 223.747 793.956 
343.105 223.94 794.813 342.885 224.148 795.756 343.295 224.331 796.616 
343.691 224.486 797.376 344.11 224.631 798.093 344.448 224.799 798.969 
344.612 224.969 799.925 345.317 225.087 800.663 346.031 225.194 801.341 
346.726 225.299 802.056 347.464 225.397 802.723 348.177 225.503 803.418 
348.909 225.618 804.09 349.589 225.76 804.811 350.277 225.914 805.522 
350.959 226.084 806.234 351.604 226.276 806.975 352.315 226.454 807.664 
352.998 226.639 808.349 353.508 226.87 809.211 353.471 227.115 810.115 
353.515 227.368 811.082 353.5 227.627 812.049 353.499 227.864 813.021 
353.506 228.097 813.995 353.523 228.321 814.97 353.372 228.543 815.927 
353.761 228.744 816.813 354.04 228.961 817.745 354.283 229.18 818.606 
354.205 229.449 819.571 354.197 229.748 820.525 354.185 230.106 821.46 
354.241 230.496 822.381 354.089 230.899 823.265 354.522 231.284 824.088 
354.796 231.69 824.961 354.95 232.057 825.79 354.912 232.452 826.702 
354.894 232.835 827.627 354.901 233.229 828.547 354.901 233.64 829.459 
354.891 234.075 830.361 354.943 234.542 831.245 354.776 235.023 832.115 
355.117 235.483 832.917 355.327 235.975 833.764 355.748 236.423 834.518 
355.56 236.934 835.362 355.614 237.463 836.21 355.584 238.008 837.05 
355.606 238.574 837.874 355.537 239.128 838.672 355.909 239.665 839.445 
356.204 240.201 840.244 356.368 240.698 841.044 356.327 241.172 841.916 
356.158 241.595 842.812 356.577 241.904 843.635 356.786 242.194 844.556 
357.086 242.407 845.356 357.01 242.637 846.325 356.91 242.846 847.302 
357.172 243.006 848.184 357.425 243.153 849.139 357.828 243.261 850.013 
357.726 243.333 850.995 357.55 243.386 851.945 358.046 243.428 852.812 
358.415 243.486 853.732 358.359 243.568 854.646 358.449 243.677 855.64 
358.258 243.803 856.622 358.687 243.913 857.468 358.919 244.045 858.428 
359.197 244.158 859.298 359.089 244.298 860.292 359.041 244.44 861.277 
359.251 244.554 862.155 359.456 244.663 863.124 359.974 244.737 863.934 
359.768 244.807 864.908 359.791 244.871 865.906 359.834 244.958 866.902 
359.648 245.061 867.89 360.093 245.184 868.745 360.326 245.333 869.704 
360.57 245.485 870.562 360.512 245.665 871.542 360.492 245.858 872.524 
360.503 246.07 873.502 360.515 246.29 874.478 360.379 246.528 875.437 
360.734 246.732 876.292 360.897 246.964 877.247 361.359 247.153 878.047 
361.159 247.366 879.011 361.197 247.574 879.989 361.202 247.778 880.969 
[...]
CELL_DATA 809
FIELD FieldData 1
radius 1 809 float
11.3864 11.3864 11.3864 11.3864 11.3864 11.3864 11.3864 11.3864 11.3864 
11.3864 11.3864 11.3864 11.3864 11.3864 11.3864 11.3864 11.3864 11.3864 
11.3864 11.3864 11.3864 11.3864 11.3864 11.3864 11.3864 11.3864 11.3864 
11.3864 11.3864 11.3864 11.3864 11.3864 11.3864 11.3864 11.3864 11.3864 
11.3864 11.3864 11.3864 11.3864 11.3864 11.3864 11.3864 11.3864 11.3864 
11.3864 11.3864 11.3864 11.3864 11.3864 11.3864 11.3864 11.3864 11.3864 
11.3864 11.3864 11.3864 11.3864 11.3864 11.3864 11.3864 11.3864 11.3864 
11.3864 11.3864 11.3864 11.3864 11.3864 11.3864 11.3864 11.3864 11.3864 
11.3864 11.3864 11.3864 11.3864 11.3864 11.3864 11.3864 11.3864 11.3864 
11.3864 11.3864 11.3864 11.3864 11.3864 11.3864 11.3864 11.3864 11.3864 
11.3864 11.3864 11.3864 11.3864 11.3864 11.3864 11.3864 11.3864 11.3864 
11.3864 11.3864 11.3864 11.3864 11.3864 11.3864 11.3864 11.3864 11.3864 
11.3864 11.3864 11.3864 11.3864 11.3864 11.3864 11.3864 11.3864 11.3864 
11.3864 11.3864 11.3864 11.3864 11.3864 11.3864 11.3864 11.3864 11.3864 
11.3864 11.3864 11.3864 11.3864 11.3864 11.3864 11.3864 11.3864 11.3864 
11.3864 11.3864 11.3864 11.3864 11.3864 11.3864 11.3864 11.3864 11.3864 
11.3864 11.3864 11.3864 11.3864 11.3864 11.3864 11.3864 11.3864 11.3864 
11.3864 11.3864 11.3864 11.3864 11.3864 11.3864 11.3864 11.3864 11.3864 
11.3864 11.3864 11.3864 11.3864 11.3864 11.3864 11.3864 11.3864 11.3864 
11.3864 11.3864 11.3864 11.3864 11.3864 11.3864 11.3864 11.3864 11.3864 
11.3864 11.3864 11.3864 11.3864 11.3864 11.3864 11.3864 11.3864 11.3864 
11.3864 11.3864 11.3864 11.3864 11.3864 11.3864 11.3864 11.3864 11.3864 
11.3864 11.3864 11.3864 11.3864 11.3864 11.3864 11.3864 11.3864 11.3864 
11.3864 11.3864 11.3864 11.3864 11.3864 11.3864 11.3864 11.3864 11.3864 
11.3864 11.3864 11.3864 11.3864 11.3864 11.3864 11.3864 11.3864 11.3864 
11.3864 11.3864 11.3864 11.3864 11.3864 11.3864 11.3864 11.3864 11.3864 
11.3864 11.3864 11.3864 11.3864 11.3864 11.3864 11.3864 11.3864 11.3864 
11.3864 11.3864 11.3864 11.3864 11.3864 11.3864 11.3864 11.3864 11.3864 
11.3864 11.3864 11.3864 11.3864 11.3864 11.3864 11.3864 11.3864 11.3864 
11.3864 11.3864 11.3864 11.3864 11.3864 11.3864 11.3864 11.3864 11.3864 
11.3864 11.3864 11.3864 11.3864 11.3864 11.3864 11.3864 11.3864 11.3864 
11.3864 11.3864 11.3864 11.3864 11.3864 11.3864 11.3864 11.3864 11.3864 
11.3864 11.3864 11.3864 11.3864 11.3864 11.3864 11.3864 11.3864 11.3864 
11.3864 11.3864 11.3864 11.3864 11.3864 11.3864 11.3864 11.3864 11.3864 
11.3864 11.3864 11.3864 11.3864 11.3864 11.3864 11.3864 11.3864 11.3864 
11.3864 11.3864 11.3864 11.3864 11.3864 11.3864 11.3864 11.3864 11.3864 
11.3864 11.3864 11.3864 11.3864 11.3864 11.3864 11.3864 11.3864 11.3864 
11.3864 11.3864 11.3864 11.3864 11.3864 11.3864 11.3864 11.3864 11.3864 
11.3864 11.3864 11.3864 11.3864 11.3864 11.3864 11.3864 11.3864 11.3864 
11.3864 11.3864 11.3864 11.3864 11.3864 11.3864 11.3864 11.3864 11.3864 
11.3864 11.3864 11.3864 11.3864 11.3864 11.3864 11.3864 11.3864 11.3864 
11.3864 11.3864 11.3864 11.3864 11.3864 11.3864 11.3864 11.3864 11.3864 
11.3864 11.3864 11.3864 11.3864 11.3864 11.3864 11.3864 11.3864 11.3864 
11.3864 11.3864 11.3864 11.3864 11.3864 11.3864 11.3864 11.3864 11.3864 
11.3864 11.3864 11.3864 11.3864 11.3864 11.3864 11.3864 11.3864 11.3864 
11.3864 11.3864 11.3864 11.3864 11.3864 11.3864 11.3864 11.3864 11.3864 
11.3864 11.3864 11.3864 11.3864 11.3864 11.3864 11.3864 11.3864 11.3864 
11.3864 11.3864 11.3864 11.3864 11.3864 11.3864 11.3864 11.3864 11.3864 
11.3864 11.3864 11.3864 11.3864 11.3864 11.3864 11.3864 11.3864 11.3864 
11.3864 11.3864 11.3864 11.3864 11.3864 11.3864 11.3864 11.3864 11.3864 
11.3864 11.3864 11.3864 11.3864 11.3864 11.3864 11.3864 11.3864 11.3864 
11.3864 11.3864 11.3864 11.3864 11.3864 11.3864 11.3864 11.3864 11.3864 
11.3864 11.3864 11.3864 11.3864 11.3864 11.3864 11.3864 11.3864 11.3864 
11.3864 11.3864 11.3864 11.3864 11.3864 11.3864 11.3864 11.3864 11.3864 
11.3864 11.3864 11.3864 11.3864 11.3864 11.3864 11.3864 11.3864 11.3864 
11.3864 11.3864 11.3864 11.3864 11.3864 11.3864 11.3864 11.3864 11.3864 
11.3864 11.3864 11.3864 11.3864 11.3864 11.3864 11.3864 11.3864 11.3864 
11.3864 11.3864 14.0789 14.0789 14.0789 14.0789 14.0789 14.0789 14.0789 
14.0789 14.0789 14.0789 14.0789 14.0789 14.0789 14.0789 14.0789 14.0789 
14.0789 14.0789 14.0789 14.0789 14.0789 14.0789 14.0789 14.0789 14.0789 
14.0789 14.0789 14.0789 14.0789 14.0789 14.0789 14.0789 14.0789 14.0789 
14.0789 14.0789 14.0789 14.0789 14.0789 14.0789 14.0789 14.0789 14.0789 
14.0789 14.0789 14.0789 14.0789 14.0789 14.0789 14.0789 14.0789 14.0789 
14.0789 14.0789 14.0789 14.0789 14.0789 14.0789 14.0789 14.0789 14.0789 
14.0789 14.0789 14.0789 14.0789 14.0789 14.0789 14.0789 14.0789 14.0789 
14.0789 14.0789 14.0789 14.0789 14.0789 14.0789 14.0789 14.0789 14.0789 
14.0789 14.0789 14.0789 14.0789 14.0789 14.0789 14.0789 14.0789 14.0789 
14.0789 14.0789 14.0789 14.0789 14.0789 14.0789 14.0789 14.0789 14.0789 
14.0789 11.6151 11.6151 11.6151 11.6151 11.6151 11.6151 11.6151 11.6151 
11.6151 11.6151 11.6151 11.6151 11.6151 11.6151 11.6151 11.6151 11.6151 
11.6151 11.6151 11.6151 11.6151 11.6151 11.6151 11.6151 11.6151 11.6151 
11.6151 11.6151 11.6151 11.6151 11.6151 11.6151 11.6151 11.6151 11.6151 
11.6151 11.6151 11.6151 11.6151 11.6151 11.6151 11.6151 11.6151 11.6151 
11.6151 11.6151 11.6151 11.6151 11.6151 11.6151 11.6151 11.6151 11.6151 
11.6151 11.6151 11.6151 11.6151 11.6151 11.6151 11.6151 11.6151 11.6151 
11.6151 11.6151 11.6151 11.6151 11.6151 11.6151 11.6151 11.6151 11.6151 
11.6151 11.6151 11.6151 11.6151 11.6151 11.6151 11.6151 11.6151 11.6151 
11.6151 11.6151 11.6151 11.6151 11.6151 11.6151 11.6151 11.6151 11.6151 
11.6151 11.6151 11.6151 11.6151 11.6151 11.6151 11.6151 11.6151 11.6151 
11.6151 11.6151 11.6151 11.6151 11.6151 11.6151 11.6151 11.6151 11.6151 
11.6151 11.6151 11.6151 11.6151 11.6151 11.6151 11.6151 11.6151 11.6151 
11.6151 11.6151 11.6151 11.6151 11.6151 11.6151 11.6151 11.6151 11.6151 
11.6151 11.6151 11.6151 11.6151 11.6151 11.6151 11.6151 11.6151 11.6151 
11.6151 11.6151 11.6151 11.6151 11.6151 11.6151 11.6151 11.6151 11.6151 
11.6151 11.6151 11.6151 11.6151 11.6151 11.6151 11.6151 11.6151 11.6151 
11.6151 11.6151 11.6151 11.6151 11.6151 11.6151 11.6151 11.6151 11.6151 
11.6151 11.6151 11.6151 11.6151 11.6151 11.6151 11.6151 11.6151 11.6151 
11.6151 11.6151 11.6151 11.6151 11.6151 11.6151 11.6151 11.6151 11.6151 
11.6151 11.6151 11.6151 11.6151 11.6151 11.6151 11.6151 11.6151 11.6151 
11.6151 11.6151 11.6151 11.6151 11.6151 11.6151 11.6151 11.6151 
